{
  "metadata": {
    "timestamp": "2025-11-25T17:38:23.968770",
    "total_candidates": 8,
    "original_molecules": 5,
    "additional_molecules": 3,
    "successful": 7,
    "total_time_seconds": 4014.738570690155,
    "model": "gpt-oss:120b",
    "method": "GPAW PBE finite-difference",
    "grid_spacing_angstrom": 0.2,
    "functional": "PBE",
    "smiles_conversion": "RDKit with ETKDG + UFF optimization"
  },
  "results": [
    {
      "name": "Pyridine",
      "formula": "C5H5N",
      "smiles": "c1ccncc1",
      "expected_atoms": 11,
      "actual_atoms": 11,
      "rationale": "Simple N-heterocycle, Lewis base, coordinates to metals",
      "success": true,
      "time": 886.358344078064,
      "energy_ev": -71.16823222232917,
      "energy_hartree": -2.615382972663265,
      "dipole_moment": [
        -0.03811387697390044,
        0.4571441341087302,
        0.0038039617910050833
      ],
      "dipole_magnitude": 0.458746004988937,
      "results": {
        "system_name": "GPAW_calc",
        "calculation_type": "energy",
        "optimized": false,
        "energy_ev": -71.16823222232917,
        "energy_hartree": -2.615382972663265,
        "forces": [
          [
            0.030547409577795233,
            -0.34644576813688815,
            0.004373352486372971
          ],
          [
            0.11138374758322248,
            -0.04658264565460667,
            0.002675173178393715
          ],
          [
            1.9786412552739459,
            0.7957090237191702,
            -0.0057021070661537904
          ],
          [
            0.12545054322560553,
            -0.371993863761632,
            0.04298615379274392
          ],
          [
            -2.067951629221102,
            0.46396642102314756,
            0.01720010447657213
          ],
          [
            -0.14372573296300703,
            -0.061186165862349,
            0.0010525321711342816
          ],
          [
            -0.024041772247587582,
            0.27344164967992207,
            0.007802482847557686
          ],
          [
            -0.30321076155970617,
            0.13549063288568583,
            0.00793728240431695
          ],
          [
            -0.0804214829714377,
            -0.45197430423440504,
            -0.0034299507244035564
          ],
          [
            0.16149625476493715,
            -0.4433123902914593,
            -0.010106280336533036
          ],
          [
            0.26484865810084657,
            0.180002726431742,
            -0.00030766779679510984
          ]
        ],
        "positions": [
          [
            9.899954549999999,
            10.871457040000001,
            10.011569405
          ],
          [
            8.75413255,
            10.07269961,
            10.012061065
          ],
          [
            8.89106663,
            8.681908620000002,
            10.000404795
          ],
          [
            10.12979427,
            8.119411410000001,
            9.988746115
          ],
          [
            11.258048859999999,
            8.87969187,
            9.988057285
          ],
          [
            11.162388449999998,
            10.27393168,
            9.999497235
          ],
          [
            9.809879339999998,
            11.94999589,
            10.020514675
          ],
          [
            7.771245489999999,
            10.525736210000002,
            10.021364785
          ],
          [
            8.01300749,
            8.05000411,
            10.000626665
          ],
          [
            12.228754509999998,
            8.402268710000001,
            9.978635215
          ],
          [
            12.0565052,
            10.88380938,
            9.999007675
          ]
        ],
        "dipole_moment": [
          -0.03811387697390044,
          0.4571441341087302,
          0.0038039617910050833
        ]
      }
    },
    {
      "name": "Imidazole",
      "formula": "C3H4N2",
      "smiles": "c1cnc[nH]1",
      "expected_atoms": 9,
      "actual_atoms": 9,
      "rationale": "Enzyme-inspired, multiple coordination sites, proton shuttle",
      "success": true,
      "time": 751.0333859920502,
      "energy_ev": -57.91844360300337,
      "energy_hartree": -2.128462468046604,
      "dipole_moment": [
        0.2452783916702474,
        0.759276887742334,
        -0.07000741226187474
      ],
      "dipole_magnitude": 0.800976853255843,
      "results": {
        "system_name": "GPAW_calc",
        "calculation_type": "energy",
        "optimized": false,
        "energy_ev": -57.91844360300337,
        "energy_hartree": -2.128462468046604,
        "forces": [
          [
            -2.4419674945408825,
            0.8569459580954912,
            -0.2170283012889704
          ],
          [
            -0.27667401755912413,
            0.738117740339325,
            -0.09260925068636892
          ],
          [
            1.6000286527496335,
            0.28559134057322116,
            0.18230681882798408
          ],
          [
            0.307961112658187,
            -2.0014365057406316,
            0.2176352098967803
          ],
          [
            1.1277108969486256,
            0.8694000692807667,
            0.14963149236721546
          ],
          [
            0.18081055166619628,
            0.29051805225828026,
            -0.03269688993402725
          ],
          [
            -0.09655188266574154,
            -0.1808320131509787,
            0.01896809338517952
          ],
          [
            0.1468671554572443,
            0.054891241627944364,
            0.014190009303100227
          ],
          [
            -0.7427292837921388,
            -1.029707286675293,
            0.07049962031761066
          ]
        ],
        "positions": [
          [
            9.321680989999999,
            10.602249735,
            9.906087915
          ],
          [
            8.929267359999999,
            9.289193415,
            10.028911595
          ],
          [
            10.01738752,
            8.506634864999999,
            10.173061825000001
          ],
          [
            11.0533813,
            9.370457655,
            10.134005425000002
          ],
          [
            10.66028077,
            10.647061345,
            9.973016985000001
          ],
          [
            8.6785301,
            11.462753095,
            9.777273075000002
          ],
          [
            7.911600679999999,
            8.922795465,
            10.014440365
          ],
          [
            12.08839932,
            9.067765804999999,
            10.222726925000002
          ],
          [
            11.26844451,
            11.493365135,
            9.912917195
          ]
        ],
        "dipole_moment": [
          0.2452783916702474,
          0.759276887742334,
          -0.07000741226187474
        ]
      }
    },
    {
      "name": "2,2'-Bipyridine",
      "formula": "C10H8N2",
      "smiles": "c1ccnc(c1)c2ccccn2",
      "expected_atoms": 20,
      "actual_atoms": 20,
      "rationale": "Bidentate chelator, stabilizes metal complexes, common ligand",
      "success": true,
      "time": 569.0556280612946,
      "energy_ev": -135.08849356042887,
      "energy_hartree": -4.9644080628129705,
      "dipole_moment": [
        -0.059739150148814715,
        0.45117273087801724,
        -0.4313041600318873
      ],
      "dipole_magnitude": 0.6270158511626658,
      "results": {
        "system_name": "GPAW_calc",
        "calculation_type": "energy",
        "optimized": false,
        "energy_ev": -135.08849356042887,
        "energy_hartree": -4.9644080628129705,
        "forces": [
          [
            0.3715099099674997,
            -0.17527095951153898,
            0.16961830814466208
          ],
          [
            -0.10615773047959999,
            -0.0021603950699666296,
            -0.009710811937892331
          ],
          [
            1.4355842462641994,
            1.2959503797309493,
            -1.1858900193708728
          ],
          [
            0.007438065314203985,
            -0.2765229598985723,
            0.28866998526083043
          ],
          [
            -1.3274653760212343,
            -0.6600024745931948,
            0.5811826701626498
          ],
          [
            -0.18528000499648223,
            -0.19910268042523258,
            0.18403777261487433
          ],
          [
            1.4766643161385768,
            -0.4424390207107804,
            0.4532494668134908
          ],
          [
            0.2217647100313417,
            -0.16546710911985654,
            0.1740514319823886
          ],
          [
            -0.3466437925252934,
            -0.2354132766414316,
            0.21672494980087736
          ],
          [
            0.08554462714589521,
            0.03702808337161452,
            -0.009732633867204061
          ],
          [
            -1.7437289747888416,
            1.0043102263580832,
            -1.0217049377888074
          ],
          [
            0.0337192471657183,
            -0.14575809234388587,
            0.150702917441753
          ],
          [
            -0.13985034535343535,
            0.18903073488139469,
            -0.17065572914117164
          ],
          [
            -0.31172244645936414,
            -0.03622995208478265,
            0.02126754800330178
          ],
          [
            0.20466069540319146,
            -0.3297240865957478,
            0.32921283050729
          ],
          [
            0.2495200162194628,
            0.24814593426217002,
            -0.24434722656375177
          ],
          [
            -0.3076107890598698,
            0.20855888838857686,
            -0.2286496277913919
          ],
          [
            0.10040360560503911,
            0.20221457822705483,
            -0.19287281596794223
          ],
          [
            0.3232781284159464,
            0.01707452280329612,
            -0.0020547587998361212
          ],
          [
            -0.12087479759346524,
            -0.3498935760327374,
            0.31979044008578006
          ]
        ],
        "positions": [
          [
            6.976543840000001,
            10.637187545,
            9.304752135000001
          ],
          [
            6.47874363,
            9.687369035000001,
            10.195213345
          ],
          [
            7.37263671,
            8.925394425,
            10.945771675000001
          ],
          [
            8.71148733,
            9.112993795000001,
            10.804576715000001
          ],
          [
            9.23723485,
            10.032052395000001,
            9.944169625
          ],
          [
            8.35548241,
            10.816984335,
            9.172133625
          ],
          [
            10.71812733,
            10.155040795000001,
            9.868483785
          ],
          [
            11.37594952,
            11.067780905000001,
            9.017707165000001
          ],
          [
            12.77192055,
            11.118452905,
            9.008519425000001
          ],
          [
            13.50678125,
            10.271049575000001,
            9.836024965
          ],
          [
            12.83109641,
            9.378759625,
            10.666840505000001
          ],
          [
            11.472305590000001,
            9.342330455,
            10.663528605000002
          ],
          [
            6.293286160000001,
            11.235620545,
            8.715859555000002
          ],
          [
            5.411444810000001,
            9.543256515000001,
            10.302580605000001
          ],
          [
            7.00344707,
            8.183871535000002,
            11.641521645000001
          ],
          [
            8.703109170000001,
            11.561217245,
            8.473214725000002
          ],
          [
            10.84165191,
            11.738740235,
            8.363831015
          ],
          [
            13.28422108,
            11.816128465,
            8.358478355
          ],
          [
            14.588555190000001,
            10.305429055000001,
            9.833566605000001
          ],
          [
            13.38578437,
            8.714000685,
            11.315409005000001
          ]
        ],
        "dipole_moment": [
          -0.059739150148814715,
          0.45117273087801724,
          -0.4313041600318873
        ]
      }
    },
    {
      "name": "Ammonia",
      "formula": "NH3",
      "smiles": "N",
      "expected_atoms": 4,
      "actual_atoms": 4,
      "rationale": "Product molecule baseline, understand NH3 energetics",
      "success": true,
      "time": 260.7274868488312,
      "energy_ev": -19.573003419413396,
      "energy_hartree": -0.7192942450374988,
      "dipole_moment": [
        0.0042533274907704385,
        0.0009271178074624556,
        -0.30431242133604414
      ],
      "dipole_magnitude": 0.30434355607040325,
      "results": {
        "system_name": "GPAW_calc",
        "calculation_type": "energy",
        "optimized": false,
        "energy_ev": -19.573003419413396,
        "energy_hartree": -0.7192942450374988,
        "forces": [
          [
            -0.15103454904806884,
            -0.04772639722113001,
            -0.8218399072611944
          ],
          [
            -0.8575653309677869,
            0.19807993611106123,
            0.2569897474719068
          ],
          [
            0.585915450384275,
            0.6400312113225056,
            0.27337340690516454
          ],
          [
            0.24524675602683582,
            -0.8281968890378913,
            0.26488354932418573
          ]
        ],
        "positions": [
          [
            9.849712160000001,
            9.893192744999999,
            10.202425810000001
          ],
          [
            10.7994722,
            9.683551674999999,
            9.821875770000002
          ],
          [
            9.200527800000001,
            9.182230935,
            9.79757419
          ],
          [
            9.56581852,
            10.817769064999998,
            9.80824963
          ]
        ],
        "dipole_moment": [
          0.0042533274907704385,
          0.0009271178074624556,
          -0.30431242133604414
        ]
      }
    },
    {
      "name": "Hydrazine",
      "formula": "N2H4",
      "smiles": "NN",
      "expected_atoms": 6,
      "actual_atoms": 6,
      "rationale": "N-N bond model, intermediate in N2 reduction pathway",
      "success": true,
      "time": 259.56166911125183,
      "energy_ev": -30.330456464126705,
      "energy_hartree": -1.114623152947908,
      "dipole_moment": [
        -0.0002795570612559724,
        0.01044537974277368,
        0.47337553999983284
      ],
      "dipole_magnitude": 0.4734908509995252,
      "results": {
        "system_name": "GPAW_calc",
        "calculation_type": "energy",
        "optimized": false,
        "energy_ev": -30.330456464126705,
        "energy_hartree": -1.114623152947908,
        "forces": [
          [
            -1.4823952184465377,
            0.32780026809425383,
            0.9677120617338896
          ],
          [
            1.488301222663163,
            -0.283848875005203,
            0.9430610475991131
          ],
          [
            0.3987196686692787,
            0.8957721697352857,
            -0.06507738247217153
          ],
          [
            -0.30103453598201224,
            -0.4407112270046445,
            -0.6775914774815803
          ],
          [
            0.3118940578886774,
            0.4244045400358703,
            -0.7064716274763524
          ],
          [
            -0.39633624295850217,
            -0.8988135971851947,
            -0.019717247963556273
          ]
        ],
        "positions": [
          [
            9.314521545,
            10.15455186,
            9.55608351
          ],
          [
            10.685444865000001,
            9.846600330000001,
            9.563771520000001
          ],
          [
            8.792474895,
            9.24873638,
            9.549733550000001
          ],
          [
            9.080301565000001,
            10.641402770000001,
            10.45332177
          ],
          [
            10.918506125,
            9.39990829,
            10.48195897
          ],
          [
            11.207525105,
            10.75126362,
            9.518041030000001
          ]
        ],
        "dipole_moment": [
          -0.0002795570612559724,
          0.01044537974277368,
          0.47337553999983284
        ]
      }
    },
    {
      "name": "Pyrazole",
      "formula": "C3H4N2",
      "smiles": "c1c[nH]nc1",
      "expected_atoms": 9,
      "actual_atoms": 9,
      "rationale": "Imidazole isomer, different N positions, metal coordination",
      "success": true,
      "time": 329.50058102607727,
      "energy_ev": -57.464086574687606,
      "energy_hartree": -2.1117651636699177,
      "dipole_moment": [
        -0.32772299687948164,
        0.3375883862408828,
        -0.04154478314673242
      ],
      "dipole_magnitude": 0.47232854054683293,
      "results": {
        "system_name": "GPAW_calc",
        "calculation_type": "energy",
        "optimized": false,
        "energy_ev": -57.464086574687606,
        "energy_hartree": -2.1117651636699177,
        "forces": [
          [
            -0.07778272826461792,
            0.8669562285172407,
            -0.11920168996931267
          ],
          [
            -0.5105640445916941,
            1.7424986853722673,
            -0.2329840874224472
          ],
          [
            -0.4916165439602782,
            0.3364557911690087,
            0.009197128129117525
          ],
          [
            0.9899528043017496,
            -2.196363487648774,
            0.26883828576434804
          ],
          [
            -0.7340744975748096,
            -0.6303108343734357,
            0.10047638865119493
          ],
          [
            -0.04614823119126919,
            0.15300548332702196,
            -0.023414400170143748
          ],
          [
            -0.3513172865221681,
            -0.059211925527840895,
            0.026549174863275606
          ],
          [
            1.3486808865106676,
            0.08435264005136214,
            -0.03720189786010714
          ],
          [
            -0.04585512005973744,
            -0.4926980984017887,
            0.061177187247174
          ]
        ],
        "positions": [
          [
            10.639814985,
            10.614379285,
            9.917952119999999
          ],
          [
            9.263946455,
            10.548574774999999,
            9.941196349999998
          ],
          [
            8.899753734999999,
            9.266893575,
            10.11575495
          ],
          [
            9.978382915,
            8.506491785,
            10.205677429999998
          ],
          [
            11.054279444999999,
            9.308266495,
            10.0875528
          ],
          [
            11.257765664999999,
            11.493508214999999,
            9.794322569999999
          ],
          [
            8.576048885,
            11.377307824999999,
            9.83802617
          ],
          [
            7.921163235,
            8.908388125,
            10.173789809999999
          ],
          [
            12.078836765,
            8.963294424999999,
            10.122676039999998
          ]
        ],
        "dipole_moment": [
          -0.32772299687948164,
          0.3375883862408828,
          -0.04154478314673242
        ]
      }
    },
    {
      "name": "1,2,4-Triazole",
      "formula": "C2H3N3",
      "smiles": "c1ncn[nH]1",
      "expected_atoms": 8,
      "actual_atoms": 8,
      "rationale": "Three nitrogen atoms, potential N2 activation, multiple binding modes",
      "success": true,
      "time": 339.5988140106201,
      "energy_ev": -53.25064656421405,
      "energy_hartree": -1.9569241775217023,
      "dipole_moment": [
        -0.574070949892805,
        0.18693262705517966,
        -0.0027464160294079147
      ],
      "dipole_magnitude": 0.6037456462531096,
      "results": {
        "system_name": "GPAW_calc",
        "calculation_type": "energy",
        "optimized": false,
        "energy_ev": -53.25064656421405,
        "energy_hartree": -1.9569241775217023,
        "forces": [
          [
            0.20366634268089998,
            -1.549873780322313,
            0.08468305435662321
          ],
          [
            -0.9505633805420984,
            -0.20043674660276992,
            -0.15383355983583102
          ],
          [
            -1.3780568724384339,
            0.7163963766426248,
            -0.021007505916119003
          ],
          [
            2.0608789947974047,
            1.5221533239276872,
            0.04710522702161616
          ],
          [
            -0.792748356232172,
            -0.7326764888467624,
            0.22914271045917622
          ],
          [
            -0.16953597608021817,
            -0.03288407015814362,
            0.0067806949353648475
          ],
          [
            0.0929756376079932,
            0.16744900179130862,
            -0.027721807766554786
          ],
          [
            1.1878526993888805,
            -0.42513142748782123,
            0.010819696212640978
          ]
        ],
        "positions": [
          [
            8.903980605000001,
            9.324288925,
            10.031612274999999
          ],
          [
            10.159654015000001,
            8.837210425,
            10.041641874999998
          ],
          [
            10.905127985,
            9.961190255,
            9.974508295
          ],
          [
            10.151014115,
            11.075844645,
            9.925942755
          ],
          [
            8.898052085,
            10.663879705,
            9.962385094999998
          ],
          [
            8.013319285000001,
            8.711481285,
            10.074057244999999
          ],
          [
            11.986680715,
            9.965760645,
            9.961235714999999
          ],
          [
            8.062102905,
            11.288518715,
            9.940150945
          ]
        ],
        "dipole_moment": [
          -0.574070949892805,
          0.18693262705517966,
          -0.0027464160294079147
        ]
      }
    },
    {
      "name": "Methylamine",
      "formula": "CH5N",
      "smiles": "CN",
      "expected_atoms": 7,
      "rationale": "Simplest primary amine, baseline for alkyl substitution effects",
      "success": false,
      "time": 610.8579161167145,
      "status": "PROGRESS"
    }
  ]
}