LAMMPS methane

5 atoms
4 bonds
6 angles

2 atom types
1 bond types
1 angle types

-5.0 5.0 xlo xhi
-5.0 5.0 ylo yhi
-5.0 5.0 zlo zhi

Masses

1 12.011
2 1.008

Atoms

1 1 1 -0.4 0.000 0.000 0.000
2 1 2 0.1  0.629 0.629 0.629
3 1 2 0.1 -0.629 -0.629 0.629
4 1 2 0.1 -0.629 0.629 -0.629
5 1 2 0.1  0.629 -0.629 -0.629

Bonds

1 1 1 2
2 1 1 3
3 1 1 4
4 1 1 5

Angles

1 1 2 1 3
2 1 2 1 4
3 1 2 1 5
4 1 3 1 4
5 1 3 1 5
6 1 4 1 5