
     Program PWSCF v.7.5 starts on 22Nov2025 at  7:36:13 

     This program is part of the open-source Quantum ESPRESSO suite
     for quantum simulation of materials; please cite
         "P. Giannozzi et al., J. Phys.:Condens. Matter 21 395502 (2009);
         "P. Giannozzi et al., J. Phys.:Condens. Matter 29 465901 (2017);
         "P. Giannozzi et al., J. Chem. Phys. 152 154105 (2020);
          URL http://www.quantum-espresso.org", 
     in publications or presentations arising from this work. More details at
     http://www.quantum-espresso.org/quote

     Parallel version (MPI), running on     1 processors

     MPI processes distributed on     1 nodes
     0 MiB available memory on the printing compute node when the environment starts

     Reading input from ch4.scf.in

     Current dimensions of program PWSCF are:
     Max number of different atomic species (ntypx) = 10
     Max number of k-points (npk) =  40000
     Max angular momentum in pseudopotentials (lmaxx) =  4

    ============================================================
    |  pseudopotential report for atomic species: hy           |
    |        pseudo potential version   7   3   2              |
    ------------------------------------------------------------
    |  hydrogen            PBE                  exchange-corr  |
    |  z =   1.    zval =   1.     exfact =   5.00000         |
    |  ifpcor =  0           atomic energy =  -0.91772 Ry      |
    |  index    orbital      occupation    energy              |
    |    1        100           1.00       -0.48               |
    |  rinner =  0.5000                                        |
    |    new generation scheme:                                |
    |    nbeta =  1     kkbeta =  271     rcloc =    0.6000    |
    |    ibeta    l     epsilon   rcut                         |
    |      1       0      -0.48   0.80                         |
    ============================================================
     file C.UPF: wavefunction(s)  3d renormalized

     IMPORTANT: XC functional enforced from input :
     Exchange-correlation= PBE
                           (   1   4   3   4   0   0   0)
     Any further DFT definition will be discarded
     Please, verify this is what you really want


     gamma-point specific algorithms are used

     Subspace diagonalization in iterative solution of the eigenvalue problem:
     a serial algorithm will be used


     G-vector sticks info
     --------------------
     sticks:   dense  smooth     PW     G-vecs:    dense   smooth      PW
     Sum        6369    6369   1597               382323   382323   47833

     Using Slab Decomposition



     bravais-lattice index     =            1
     lattice parameter (alat)  =      20.0000  a.u.
     unit-cell volume          =    8000.0000 (a.u.)^3
     number of atoms/cell      =            5
     number of atomic types    =            2
     number of electrons       =         8.00
     number of Kohn-Sham states=            8
     kinetic-energy cutoff     =      50.0000  Ry
     charge density cutoff     =     200.0000  Ry
     scf convergence threshold =      1.0E-07
     mixing beta               =       0.7000
     number of iterations used =            8  plain     mixing
     Exchange-correlation= PBE
                           (   1   4   3   4   0   0   0)

     celldm(1)=  20.000000  celldm(2)=   0.000000  celldm(3)=   0.000000
     celldm(4)=   0.000000  celldm(5)=   0.000000  celldm(6)=   0.000000

     crystal axes: (cart. coord. in units of alat)
               a(1) = (   1.000000   0.000000   0.000000 )  
               a(2) = (   0.000000   1.000000   0.000000 )  
               a(3) = (   0.000000   0.000000   1.000000 )  

     reciprocal axes: (cart. coord. in units 2 pi/alat)
               b(1) = (  1.000000  0.000000  0.000000 )  
               b(2) = (  0.000000  1.000000  0.000000 )  
               b(3) = (  0.000000  0.000000  1.000000 )  


     PseudoPot. # 1 for C  read from file:
     /Users/stevens/Dropbox/Backplane/APPS/q-e/pseudo/C.UPF
     MD5 check sum: 4781e8ce5ee01a432381f51d0ea25c53
     Pseudo is Norm-conserving, Zval =  4.0
     Generated by new atomic code, or converted to UPF format
     Using radial grid of  461 points,  2 beta functions with: 
                l(1) =   0
                l(2) =   1

     PseudoPot. # 2 for hy read from file:
     /Users/stevens/Dropbox/Backplane/APPS/q-e/pseudo/H_US.van
     MD5 check sum: a9a9bfe98ff56cf4de197d71fc46bb44
     Pseudo is Ultrasoft, Zval =  1.0
     Generated by Vanderbilt code, v. 7.3.2
     Using radial grid of  399 points,  1 beta functions with: 
                l(1) =   0
     Q(r) pseudized with  8 coefficients,  rinner =    0.500

     atomic species   valence    mass     pseudopotential
     C                 4.00    12.01100     C ( 1.00)
     H                 1.00     1.00800     hy( 1.00)

     24 Sym. Ops. (no inversion) found



   Cartesian axes

     site n.     atom                  positions (alat units)
         1        C      tau(   1) = (   0.0000000   0.0000000   0.0000000  )
         2        H      tau(   2) = (   0.0594319   0.0594319   0.0594319  )
         3        H      tau(   3) = (  -0.0594319  -0.0594319   0.0594319  )
         4        H      tau(   4) = (  -0.0594319   0.0594319  -0.0594319  )
         5        H      tau(   5) = (   0.0594319  -0.0594319  -0.0594319  )

     number of k points=     1  Gaussian smearing, width (Ry)=  0.0200
                       cart. coord. in units 2pi/alat
        k(    1) = (   0.0000000   0.0000000   0.0000000), wk =   2.0000000

     Dense  grid:   191162 G-vectors     FFT dimensions: (  96,  96,  96)

     Estimated max dynamical RAM per process >     187.10 MB

     Initial potential from superposition of free atoms

     starting charge       7.9999, renormalised to       8.0000

     negative rho (up, down):  7.598E-04 0.000E+00
     Starting wfcs are   13 randomized atomic wfcs

     total cpu time spent up to now is        0.4 secs

     Self-consistent Calculation

     iteration #  1     ecut=    50.00 Ry     beta= 0.70
     Davidson diagonalization with overlap
     ethr =  1.00E-02,  avg # of iterations =  5.0

     negative rho (up, down):  4.171E-04 0.000E+00

     total cpu time spent up to now is        1.0 secs

     total energy              =     -15.94417189 Ry
     estimated scf accuracy    <       0.77272273 Ry

     iteration #  2     ecut=    50.00 Ry     beta= 0.70
     Davidson diagonalization with overlap
     ethr =  9.66E-03,  avg # of iterations =  2.0

     negative rho (up, down):  7.294E-04 0.000E+00

     total cpu time spent up to now is        1.4 secs

     total energy              =     -16.13103592 Ry
     estimated scf accuracy    <       0.30576572 Ry

     iteration #  3     ecut=    50.00 Ry     beta= 0.70
     Davidson diagonalization with overlap
     ethr =  3.82E-03,  avg # of iterations =  2.0

     negative rho (up, down):  1.375E-03 0.000E+00

     total cpu time spent up to now is        1.8 secs

     total energy              =     -16.18727087 Ry
     estimated scf accuracy    <       0.00428378 Ry

     iteration #  4     ecut=    50.00 Ry     beta= 0.70
     Davidson diagonalization with overlap
     ethr =  5.35E-05,  avg # of iterations =  9.0

     negative rho (up, down):  1.231E-03 0.000E+00

     total cpu time spent up to now is        2.5 secs

     total energy              =     -16.18818592 Ry
     estimated scf accuracy    <       0.00081166 Ry

     iteration #  5     ecut=    50.00 Ry     beta= 0.70
     Davidson diagonalization with overlap
     ethr =  1.01E-05,  avg # of iterations =  4.0

     negative rho (up, down):  1.264E-03 0.000E+00

     total cpu time spent up to now is        2.9 secs

     total energy              =     -16.18822893 Ry
     estimated scf accuracy    <       0.00002941 Ry

     iteration #  6     ecut=    50.00 Ry     beta= 0.70
     Davidson diagonalization with overlap
     ethr =  3.68E-07,  avg # of iterations =  3.0

     negative rho (up, down):  1.275E-03 0.000E+00

     total cpu time spent up to now is        3.5 secs

     total energy              =     -16.18824634 Ry
     estimated scf accuracy    <       0.00005472 Ry

     iteration #  7     ecut=    50.00 Ry     beta= 0.70
     Davidson diagonalization with overlap
     ethr =  3.68E-07,  avg # of iterations =  2.0

     negative rho (up, down):  1.276E-03 0.000E+00

     total cpu time spent up to now is        3.9 secs

     total energy              =     -16.18825152 Ry
     estimated scf accuracy    <       0.00000251 Ry

     iteration #  8     ecut=    50.00 Ry     beta= 0.70
     Davidson diagonalization with overlap
     ethr =  3.14E-08,  avg # of iterations =  2.0

     negative rho (up, down):  1.276E-03 0.000E+00

     total cpu time spent up to now is        4.3 secs

     total energy              =     -16.18825191 Ry
     estimated scf accuracy    <       0.00000012 Ry

     iteration #  9     ecut=    50.00 Ry     beta= 0.70
     Davidson diagonalization with overlap
     ethr =  1.52E-09,  avg # of iterations =  2.0

     negative rho (up, down):  1.276E-03 0.000E+00

     total cpu time spent up to now is        4.7 secs

     End of self-consistent calculation

          k = 0.0000 0.0000 0.0000 ( 23917 PWs)   bands (ev):

   -16.7158  -9.2707  -9.2707  -9.2707  -0.5388   0.7273   0.8722   0.8722

     the Fermi energy is    -7.9218 ev

!    total energy              =     -16.18825193 Ry
     estimated scf accuracy    <          6.2E-09 Ry
     smearing contrib. (-TS)   =      -0.00000000 Ry
     internal energy E=F+TS    =     -16.18825193 Ry

     The total energy is F=E-TS. E is the sum of the following terms:
     one-electron contribution =     -41.53995073 Ry
     hartree contribution      =      21.62050977 Ry
     xc contribution           =      -6.37223155 Ry
     ewald contribution        =      10.10342057 Ry

     convergence has been achieved in   9 iterations

     Writing all to output data dir /Users/stevens/Dropbox/Backplane/APPS/test_runs/methane/quantum_espresso/tmp/ch4.save/ :
     XML data file, charge density, pseudopotentials, collected wavefunctions

     init_run     :      0.37s CPU      0.41s WALL (       1 calls)
     electrons    :      4.21s CPU      4.28s WALL (       1 calls)

     Called by init_run:
     wfcinit      :      0.10s CPU      0.10s WALL (       1 calls)
     potinit      :      0.18s CPU      0.20s WALL (       1 calls)
     hinit0       :      0.04s CPU      0.05s WALL (       1 calls)

     Called by electrons:
     c_bands      :      1.85s CPU      1.67s WALL (       9 calls)
     sum_band     :      0.59s CPU      0.62s WALL (       9 calls)
     v_of_rho     :      1.46s CPU      1.59s WALL (      10 calls)
     newd         :      0.25s CPU      0.27s WALL (      10 calls)
     mix_rho      :      0.20s CPU      0.27s WALL (       9 calls)

     Called by c_bands:
     init_us_2    :      0.02s CPU      0.03s WALL (      19 calls)
     regterg      :      1.84s CPU      1.64s WALL (       9 calls)

     Called by *egterg:
     rdiaghg      :      0.01s CPU      0.02s WALL (      40 calls)
     h_psi        :      1.57s CPU      1.56s WALL (      41 calls)
     s_psi        :      0.02s CPU      0.01s WALL (      41 calls)
     g_psi        :      0.01s CPU      0.01s WALL (      31 calls)

     Called by h_psi:
     h_psi:calbec :      0.01s CPU      0.01s WALL (      41 calls)
     vloc_psi     :      1.44s CPU      1.52s WALL (      41 calls)
                                        0.00s GPU  (      41 calls)
     add_vuspsi   :      0.12s CPU      0.03s WALL (      41 calls)

     General routines
     calbec       :      0.01s CPU      0.01s WALL (      50 calls)
     fft          :      1.08s CPU      1.11s WALL (      89 calls)
     ffts         :      0.11s CPU      0.11s WALL (       9 calls)
     fftw         :      1.43s CPU      1.44s WALL (     286 calls)

     Parallel routines

     PWSCF        :      4.60s CPU      4.73s WALL


   This run was terminated on:   7:36:18  22Nov2025            

=------------------------------------------------------------------------------=
   JOB DONE.
=------------------------------------------------------------------------------=

