
  ___ ___ ___ _ _ _  
 |   |   |_  | | | | 
 | | | | | . | | | | 
 |__ |  _|___|_____|  25.7.0
 |___|_|             

User:   stevens@M1-Mac-mini.local
Date:   Sat Nov 22 07:36:38 2025
Arch:   arm64
Pid:    19383
CWD:    /Users/stevens/Dropbox/Backplane/APPS/test_runs/methane/gpaw
Python: 3.14.0
gpaw:   /Users/stevens/Library/Python/3.14/lib/python/site-packages/gpaw
_gpaw:  /Users/stevens/Library/Python/3.14/lib/python/site-packages/
        _gpaw.cpython-314-darwin.so
ase:    /Users/stevens/Library/Python/3.14/lib/python/site-packages/ase (version 3.26.0)
numpy:  /Users/stevens/Library/Python/3.14/lib/python/site-packages/numpy (version 2.3.5)
scipy:  /Users/stevens/Library/Python/3.14/lib/python/site-packages/scipy (version 1.16.3)
libxc:  2.x.y
units:  Angstrom and eV
cores: 1
OpenMP: False
OMP_NUM_THREADS: 1

Input parameters:
  basis: dzp
  mode: lcao
  occupations: {fixmagmom: False,
                name: fermi-dirac,
                width: 0.1}
  xc: PBE

System changes: positions, numbers, cell, pbc, initial_charges, initial_magmoms 

Initialize ...

species:
  C:
    name: Carbon
    id: 4aa54d4b901d75f77cc0ea3eec22967b
    Z: 6.0
    valence: 4
    core: 2
    charge: 0.0
    file: /Users/stevens/Library/Python/3.14/lib/python/site-packages/gpaw_data/setups/C.PBE.gz
    compensation charges: {type: gauss,
                           rc: 0.20,
                           lmax: 2}
    cutoffs: {filter: 1.14,
              core: 1.14}
    projectors:
      #              energy  rcut
      - 2s(2.00)   -13.751   0.635
      - 2p(2.00)    -5.284   0.635
      -  s          13.461   0.635
      -  p          21.927   0.635
      -  d           0.000   0.635
  
    # LCAO basis set for C:
    #   Name: dzp
    #   File: /Users/stevens/Library/Python/3.14/lib/python/site-packages/gpaw_data/setups/C.dzp.basis.gz
    #   Number of radial functions: 5
    #   Number of spherical harmonics: 13
    #     l=0, rc=5.5469 Bohr: 2s-sz confined orbital
    #     l=1, rc=6.6719 Bohr: 2p-sz confined orbital
    #     l=0, rc=3.0312 Bohr: 2s-dz split-valence wave
    #     l=1, rc=3.7500 Bohr: 2p-dz split-valence wave
    #     l=2, rc=6.6719 Bohr: d-type Gaussian polarization
    #   Number of RI-basis functions 0

  H:
    name: Hydrogen
    id: d65de229564ff8ea4db303e23b6d1ecf
    Z: 1.0
    valence: 1
    core: 0
    charge: 0.0
    file: /Users/stevens/Library/Python/3.14/lib/python/site-packages/gpaw_data/setups/H.PBE.gz
    compensation charges: {type: gauss,
                           rc: 0.15,
                           lmax: 2}
    cutoffs: {filter: 0.85,
              core: 0.53}
    projectors:
      #              energy  rcut
      - 1s(1.00)    -6.494   0.476
      -  s          20.717   0.476
      -  p           0.000   0.476
  
    # LCAO basis set for H:
    #   Name: dzp
    #   File: /Users/stevens/Library/Python/3.14/lib/python/site-packages/gpaw_data/setups/H.dzp.basis.gz
    #   Number of radial functions: 3
    #   Number of spherical harmonics: 5
    #     l=0, rc=6.4219 Bohr: 1s-sz confined orbital
    #     l=0, rc=3.6094 Bohr: 1s-dz split-valence wave
    #     l=1, rc=6.4219 Bohr: p-type Gaussian polarization
    #   Number of RI-basis functions 0

Reference energy: -1077.588764  # eV

Spin-paired calculation

Convergence criteria:
 Maximum [total energy] change in last 3 cyles: 0.0005 eV / valence electron
 Maximum integral of absolute [dens]ity change: 0.0001 electrons / valence electron
 Maximum integral of absolute [eigenst]ate change: 4e-08 eV^2 / valence electron
 Maximum number of scf [iter]ations: 333
 (Square brackets indicate name in SCF output, whereas a 'c' in
 the SCF output indicates the quantity has converged.)

Symmetries present (total): 24

  ( 1  0  0)  ( 1  0  0)  ( 1  0  0)  ( 1  0  0)  ( 0  1  0)  ( 0  1  0)
  ( 0  1  0)  ( 0  0  1)  ( 0  0 -1)  ( 0 -1  0)  ( 1  0  0)  ( 0  0  1)
  ( 0  0  1)  ( 0  1  0)  ( 0 -1  0)  ( 0  0 -1)  ( 0  0  1)  ( 1  0  0)

  ( 0  1  0)  ( 0  1  0)  ( 0  0  1)  ( 0  0  1)  ( 0  0  1)  ( 0  0  1)
  ( 0  0 -1)  (-1  0  0)  ( 1  0  0)  ( 0  1  0)  ( 0 -1  0)  (-1  0  0)
  (-1  0  0)  ( 0  0 -1)  ( 0  1  0)  ( 1  0  0)  (-1  0  0)  ( 0 -1  0)

  ( 0  0 -1)  ( 0  0 -1)  ( 0  0 -1)  ( 0  0 -1)  ( 0 -1  0)  ( 0 -1  0)
  ( 1  0  0)  ( 0  1  0)  ( 0 -1  0)  (-1  0  0)  ( 1  0  0)  ( 0  0  1)
  ( 0 -1  0)  (-1  0  0)  ( 1  0  0)  ( 0  1  0)  ( 0  0 -1)  (-1  0  0)

  ( 0 -1  0)  ( 0 -1  0)  (-1  0  0)  (-1  0  0)  (-1  0  0)  (-1  0  0)
  ( 0  0 -1)  (-1  0  0)  ( 0  1  0)  ( 0  0  1)  ( 0  0 -1)  ( 0 -1  0)
  ( 1  0  0)  ( 0  0  1)  ( 0  0 -1)  ( 0 -1  0)  ( 0  1  0)  ( 0  0  1)

1 k-point (Gamma)
1 k-point in the irreducible part of the Brillouin zone
       k-points in crystal coordinates                weights
   0:     0.00000000    0.00000000    0.00000000          1/1

Wave functions: LCAO
  Diagonalizer: Serial LAPACK
  Atomic Correction: dense with blas
  Data-type: float
 

Occupation numbers: Fermi-Dirac:
  width: 0.1000  # eV
 

Eigensolver
   LCAO using direct dense diagonalizer 

Densities:
  Coarse grid: 48*48*48 grid
  Fine grid: 96*96*96 grid
  Total Charge: 0.000000 

Density mixing:
  Method: separate
  Backend: pulay
  Linear mixing parameter: 0.25
  old densities: 3
  Damping of long wavelength oscillations: 1  # (no daming) 

Hamiltonian:
  XC and Coulomb potentials evaluated on a 96*96*96 grid
  Using the PBE Exchange-Correlation functional
  Interpolation: tri-quintic (5. degree polynomial)
  Poisson solver: FastPoissonSolver using
    Stencil: 6*3+1=19 point O(h^6) finite-difference Laplacian
    FFT axes: []
    FST axes: [np.int64(0), np.int64(1), np.int64(2)]
 

XC parameters: PBE with 2 nearest neighbor stencil

Memory estimate:
  Process memory now: 227.98 MiB
  Calculator: 46.49 MiB
    Density: 27.74 MiB
      Arrays: 21.21 MiB
      Localized functions: 1.77 MiB
      Mixer: 4.75 MiB
    Hamiltonian: 14.01 MiB
      Arrays: 13.87 MiB
      XC: 0.00 MiB
      Poisson: 0.00 MiB
      vbar: 0.14 MiB
    Wavefunctions: 4.74 MiB
      C [qnM]: 0.00 MiB
      S, T [2 x qmm]: 0.02 MiB
      P [aqMi]: 0.00 MiB
      BasisFunctions: 4.72 MiB
      Eigensolver: 0.00 MiB

Total number of cores used: 1

Number of atoms: 5
Number of atomic orbitals: 33
Number of bands in calculation: 8
Number of valence electrons: 8
Bands to converge: occupied

... initialized

Initializing position-dependent things.

Density initialized from atomic densities
       .----------------------.  
      /|                      |  
     / |                      |  
    /  |                      |  
   /   |                      |  
  /    |                      |  
 *     |                      |  
 |     |         H            |  
 |     |      H               |  
 |     |      HC              |  
 |     |         H            |  
 |     .----------------------.  
 |    /                      /   
 |   /                      /    
 |  /                      /     
 | /                      /      
 |/                      /       
 *----------------------*        

Atomic positions and initial magnetic moments

Positions:
   0 C      4.629118    4.629118    4.629118    ( 0.0000,  0.0000,  0.0000)
   1 H      5.258236    5.258236    5.258236    ( 0.0000,  0.0000,  0.0000)
   2 H      4.000000    4.000000    5.258236    ( 0.0000,  0.0000,  0.0000)
   3 H      5.258236    4.000000    4.000000    ( 0.0000,  0.0000,  0.0000)
   4 H      4.000000    5.258236    4.000000    ( 0.0000,  0.0000,  0.0000)

Unit cell:
           periodic     x           y           z      points  spacing
  1. axis:    no     9.258236    0.000000    0.000000    48     0.1929
  2. axis:    no     0.000000    9.258236    0.000000    48     0.1929
  3. axis:    no     0.000000    0.000000    9.258236    48     0.1929

  Lengths:   9.258236   9.258236   9.258236
  Angles:   90.000000  90.000000  90.000000

Effective grid spacing dv^(1/3) = 0.1929

     iter     time        total  log10-change:
                         energy   eigst   dens
iter:   1 07:36:39   -24.967067        c
iter:   2 07:36:39   -23.754128        c -0.60
iter:   3 07:36:39   -23.371218        c -0.82
iter:   4 07:36:40   -23.303375        c -1.11
iter:   5 07:36:40   -23.303450        c -2.20
iter:   6 07:36:40   -23.303541c       c -2.59
iter:   7 07:36:40   -23.303563c       c -2.75
iter:   8 07:36:40   -23.303559c       c -3.40
iter:   9 07:36:41   -23.303559c       c -3.89
iter:  10 07:36:41   -23.303558c       c -4.03c

Converged after 10 iterations.

Dipole moment: (-0.000000, -0.000000, -0.000000) |e|*Ang

Energy contributions relative to reference atoms: (reference = -1077.588764)

Kinetic:        +18.875982
Potential:      -22.290017
External:        +0.000000
XC:             -19.965957
Entropy (-ST):   -0.000000
Local:           +0.076434
SIC:             +0.000000
--------------------------
Free energy:    -23.303558
Extrapolated:   -23.303558

 Band  Eigenvalues  Occupancy
    0    -17.10339    2.00000
    1     -9.41476    2.00000
    2     -9.41476    2.00000
    3     -9.41476    2.00000
    4      2.33828    0.00000
    5      4.13880    0.00000
    6      4.13880    0.00000
    7      4.13880    0.00000

Fermi level: -6.24971

Gap: 11.753 eV
Transition (v -> c):
  (s=0, k=0, n=3, [0.00, 0.00, 0.00]) -> (s=0, k=0, n=4, [0.00, 0.00, 0.00])
No difference between direct/indirect transitions
Timing:                              incl.     excl.
-----------------------------------------------------------
Basic WFS set positions:             0.001     0.001   0.0% |
Basis functions set positions:       0.004     0.004   0.2% |
LCAO WFS Initialize:                 0.155     0.005   0.2% |
 Hamiltonian:                        0.150     0.000   0.0% |
  Atomic:                            0.024     0.000   0.0% |
   XC Correction:                    0.024     0.024   1.1% |
  Calculate atomic Hamiltonians:     0.001     0.001   0.0% |
  Communicate:                       0.000     0.000   0.0% |
  Hartree integrate/restrict:        0.004     0.004   0.2% |
  Initialize Hamiltonian:            0.000     0.000   0.0% |
  Poisson:                           0.041     0.002   0.1% |
   Communicate from 1D:              0.005     0.005   0.2% |
   Communicate from 2D:              0.005     0.005   0.2% |
   Communicate to 1D:                0.005     0.005   0.2% |
   Communicate to 2D:                0.005     0.005   0.2% |
   FFT 1D:                           0.005     0.005   0.2% |
   FFT 2D:                           0.013     0.013   0.6% |
  XC 3D grid:                        0.079     0.079   3.5% ||
  vbar:                              0.001     0.001   0.0% |
P tci:                               0.002     0.002   0.1% |
SCF-cycle:                           1.676     0.003   0.1% |
 Density:                            0.207     0.000   0.0% |
  Atomic density matrices:           0.004     0.004   0.2% |
  Mix:                               0.041     0.041   1.8% ||
  Multipole moments:                 0.000     0.000   0.0% |
  Normalize:                         0.000     0.000   0.0% |
  Pseudo density:                    0.161     0.001   0.0% |
   Calculate density matrix:         0.000     0.000   0.0% |
   Construct density:                0.072     0.072   3.2% ||
   Symmetrize density:               0.088     0.088   3.9% |-|
 Hamiltonian:                        1.351     0.000   0.0% |
  Atomic:                            0.198     0.002   0.1% |
   XC Correction:                    0.196     0.196   8.6% |--|
  Calculate atomic Hamiltonians:     0.004     0.004   0.2% |
  Communicate:                       0.000     0.000   0.0% |
  Hartree integrate/restrict:        0.031     0.031   1.4% ||
  Poisson:                           0.366     0.017   0.7% |
   Communicate from 1D:              0.042     0.042   1.9% ||
   Communicate from 2D:              0.043     0.043   1.9% ||
   Communicate to 1D:                0.046     0.046   2.0% ||
   Communicate to 2D:                0.044     0.044   1.9% ||
   FFT 1D:                           0.052     0.052   2.3% ||
   FFT 2D:                           0.122     0.122   5.3% |-|
  XC 3D grid:                        0.748     0.748  32.8% |------------|
  vbar:                              0.004     0.004   0.2% |
 LCAO eigensolver:                   0.115     0.000   0.0% |
  Calculate projections:             0.000     0.000   0.0% |
  DenseAtomicCorrection:             0.001     0.001   0.1% |
  Distribute overlap matrix:         0.000     0.000   0.0% |
  Orbital Layouts:                   0.006     0.006   0.3% |
  Potential matrix:                  0.107     0.107   4.7% |-|
ST tci:                              0.001     0.001   0.0% |
Set symmetry:                        0.003     0.003   0.1% |
TCI: Evaluate splines:               0.042     0.042   1.8% ||
mktci:                               0.001     0.001   0.1% |
Other:                               0.394     0.394  17.3% |------|
-----------------------------------------------------------
Total:                                         2.278 100.0%

Memory usage: 457.50 MiB
Date: Sat Nov 22 07:36:41 2025
